<?xml version="1.0" encoding="UTF-8"?>

<!-- generated on 2024-10-14 14:10:43 by Eclipse SUMO GUI Version 1.20.0
<configuration xmlns:xsi="http://www.w3.org/2001/XMLSchema-instance" xsi:noNamespaceSchemaLocation="http://sumo.dlr.de/xsd/sumoConfiguration.xsd">

    <input>
        <net-file value="demo_00.net.xml"/>
        <route-files value="demo_00.rou.xml"/>
        <additional-files value="demo_00.add.xml"/>
    </input>

    <output>
        <tripinfo-output value="tripinfo.xml"/>
    </output>

    <traci_server>
        <remote-port value="64895"/>
    </traci_server>

</configuration>
-->

<tripinfos xmlns:xsi="http://www.w3.org/2001/XMLSchema-instance" xsi:noNamespaceSchemaLocation="http://sumo.dlr.de/xsd/tripinfo_file.xsd">
    <tripinfo id="0" depart="0.00" departLane="e1_0" departPos="5.10" departSpeed="0.00" departDelay="0.00" arrival="10005.00" arrivalLane="e2_2" arrivalPos="70.15" arrivalSpeed="14.37" duration="10005.00" routeLength="139589.52" waitingTime="0.00" waitingCount="0" stopTime="0.00" timeLoss="524.07" rerouteNo="441" devices="tripinfo_0" vType="DEFAULT_VEHTYPE" speedFactor="1.06" vaporized=""/>
    <tripinfo id="7" depart="21.00" departLane="e1_0" departPos="5.10" departSpeed="0.00" departDelay="21.00" arrival="10006.00" arrivalLane="e1_0" arrivalPos="76.98" arrivalSpeed="11.47" duration="9985.00" routeLength="116198.29" waitingTime="0.00" waitingCount="0" stopTime="0.00" timeLoss="542.72" rerouteNo="372" devices="tripinfo_7" vType="DEFAULT_VEHTYPE" speedFactor="0.89" vaporized=""/>
    <tripinfo id="1" depart="3.00" departLane="e1_0" departPos="5.10" departSpeed="0.00" departDelay="3.00" arrival="10009.00" arrivalLane="e2_0" arrivalPos="70.15" arrivalSpeed="12.73" duration="10006.00" routeLength="123368.37" waitingTime="0.00" waitingCount="0" stopTime="0.00" timeLoss="539.59" rerouteNo="395" devices="tripinfo_1" vType="DEFAULT_VEHTYPE" speedFactor="0.94" vaporized=""/>
    <tripinfo id="2" depart="6.00" departLane="e1_0" departPos="5.10" departSpeed="0.00" departDelay="6.00" arrival="10021.00" arrivalLane="e1_0" arrivalPos="76.98" arrivalSpeed="13.85" duration="10015.00" routeLength="133097.46" waitingTime="0.00" waitingCount="0" stopTime="0.00" timeLoss="530.67" rerouteNo="424" devices="tripinfo_2" vType="DEFAULT_VEHTYPE" speedFactor="1.01" vaporized=""/>
    <tripinfo id="3" depart="9.00" departLane="e1_0" departPos="5.10" departSpeed="0.00" departDelay="9.00" arrival="10026.00" arrivalLane="e1_1" arrivalPos="76.98" arrivalSpeed="14.39" duration="10017.00" routeLength="143110.11" waitingTime="0.00" waitingCount="0" stopTime="0.00" timeLoss="500.62" rerouteNo="448" devices="tripinfo_3" vType="DEFAULT_VEHTYPE" speedFactor="1.08" vaporized=""/>
    <tripinfo id="4" depart="12.00" departLane="e1_0" departPos="5.10" departSpeed="0.00" departDelay="12.00" arrival="10033.00" arrivalLane="e1_1" arrivalPos="76.98" arrivalSpeed="13.96" duration="10021.00" routeLength="135834.18" waitingTime="0.00" waitingCount="0" stopTime="0.00" timeLoss="529.09" rerouteNo="430" devices="tripinfo_4" vType="DEFAULT_VEHTYPE" speedFactor="1.03" vaporized=""/>
    <tripinfo id="6" depart="18.00" departLane="e1_0" departPos="5.10" departSpeed="0.00" departDelay="18.00" arrival="10036.00" arrivalLane="e1_2" arrivalPos="76.98" arrivalSpeed="14.13" duration="10018.00" routeLength="138137.65" waitingTime="0.00" waitingCount="0" stopTime="0.00" timeLoss="507.49" rerouteNo="436" devices="tripinfo_6" vType="DEFAULT_VEHTYPE" speedFactor="1.05" vaporized=""/>
    <tripinfo id="5" depart="15.00" departLane="e1_0" departPos="5.10" departSpeed="0.00" departDelay="15.00" arrival="10044.00" arrivalLane="e1_0" arrivalPos="76.98" arrivalSpeed="10.34" duration="10029.00" routeLength="109161.63" waitingTime="0.00" waitingCount="0" stopTime="0.00" timeLoss="570.89" rerouteNo="350" devices="tripinfo_5" vType="DEFAULT_VEHTYPE" speedFactor="0.83" vaporized=""/>
</tripinfos>
